 Gaussian 03, Revision D.02,
 Gaussian 03:  AM64L-G03RevD.02  1-Mar-2006

 ------------------------------------------------------------
 #HF/6-31G* SCF=tight Test Pop=MK iop(6/33=2) iop(6/42=6) opt
 ------------------------------------------------------------

 ---------------------
 remark line goes here
 ---------------------
 Symbolic Z-matrix:
 Charge = -1 Multiplicity = 1

 SCF Done:  E(RHF) =  -1666.22634633     A.U. after   16 cycles
 SCF Done:  E(RHF) =  -1666.25167583     A.U. after   14 cycles
 SCF Done:  E(RHF) =  -1666.26072770     A.U. after   16 cycles
 SCF Done:  E(RHF) =  -1666.26306983     A.U. after   16 cycles
 SCF Done:  E(RHF) =  -1666.26523840     A.U. after   14 cycles
 SCF Done:  E(RHF) =  -1666.26782748     A.U. after   13 cycles
 SCF Done:  E(RHF) =  -1666.26933306     A.U. after   17 cycles
 SCF Done:  E(RHF) =  -1666.27047223     A.U. after   17 cycles
 SCF Done:  E(RHF) =  -1666.27089753     A.U. after   13 cycles
 SCF Done:  E(RHF) =  -1666.27102091     A.U. after   13 cycles
 SCF Done:  E(RHF) =  -1666.29876350     A.U. after   16 cycles
 SCF Done:  E(RHF) =  -1666.30091252     A.U. after   13 cycles
 SCF Done:  E(RHF) =  -1666.30104653     A.U. after   13 cycles
 SCF Done:  E(RHF) =  -1666.30107800     A.U. after   11 cycles
 SCF Done:  E(RHF) =  -1666.30108451     A.U. after   11 cycles
 SCF Done:  E(RHF) =  -1666.30108994     A.U. after   11 cycles
 SCF Done:  E(RHF) =  -1666.30109286     A.U. after   11 cycles
 SCF Done:  E(RHF) =  -1666.30109360     A.U. after    9 cycles
 SCF Done:  E(RHF) =  -1666.30109376     A.U. after    8 cycles
 SCF Done:  E(RHF) =  -1666.30109380     A.U. after    7 cycles
 Optimization completed.
    -- Stationary point found.

                         Standard orientation:
 ---------------------------------------------------------------------
 Center     Atomic     Atomic              Coordinates (Angstroms)
 Number     Number      Type              X           Y           Z
 ---------------------------------------------------------------------
    1          6             0        0.348263    1.375638   -0.724599
    2          6             0       -0.998109    1.120169   -0.666649
    3          6             0       -0.606918   -1.179657   -0.021717
    4          6             0        1.247710    0.353206   -0.431043
    5          6             0       -1.495003   -0.153842   -0.318443
    6          6             0        0.750152   -0.894759   -0.086461
    7          6             0        3.183746   -0.633019   -0.136012
    8          6             0        6.594008    2.325213    1.099437
    9          6             0        5.521628    1.745629    0.597056
   10          6             0       -3.627019   -1.348521    0.070725
   11          6             0       -5.551589    1.502126    0.156226
   12          6             0        5.555071    0.743135   -0.518774
   13          6             0       -5.124144   -1.099360   -0.021188
   14          6             0       -5.660812    0.090930    0.797499
   15          7             0        2.636500    0.463388   -0.447323
   16          7             0       -2.876792   -0.284266   -0.306861
   17          8             0       -3.177853   -2.409020    0.435229
   18          8             0       -4.721945    1.634763   -0.770280
   19          8             0       -6.286864    2.347556    0.640668
   20         16             0        2.099731   -1.970944    0.229935
   21         16             0        4.925423   -0.905751   -0.052450
   22          1             0       -3.428378    0.534368   -0.567813
   23          1             0       -6.711464   -0.077070    1.007044
   24          1             0       -5.170061    0.129628    1.768616
   25          1             0       -5.375027   -0.950372   -1.067221
   26          1             0       -5.588576   -2.021474    0.306634
   27          1             0        6.570875    0.567814   -0.851083
   28          1             0        4.968025    1.080713   -1.360915
   29          1             0        4.544396    1.989149    0.974160
   30          1             0        7.585696    2.102020    0.742451
   31          1             0        6.521045    3.049200    1.891333
   32          1             0       -0.971776   -2.147141    0.248187
   33          1             0       -1.708020    1.898090   -0.882957
   34          1             0        0.714231    2.350626   -0.990177
 ---------------------------------------------------------------------

 The electronic state is 1-A.
 Alpha  occ. eigenvalues --  -91.89896 -91.89525 -20.41317 -20.33099 -20.31974
 Alpha  occ. eigenvalues --  -15.49813 -15.46343 -11.26301 -11.23143 -11.20776
 Alpha  occ. eigenvalues --  -11.18909 -11.18618 -11.17928 -11.17686 -11.16751
 Alpha  occ. eigenvalues --  -11.16669 -11.15087 -11.13770 -11.13668 -11.10775
 Alpha  occ. eigenvalues --  -11.08689  -8.90956  -8.90569  -6.59212  -6.59114
 Alpha  occ. eigenvalues --   -6.58923  -6.58871  -6.58702  -6.58518  -1.27604
 Alpha  occ. eigenvalues --   -1.21975  -1.21406  -1.13996  -1.10849  -1.05636
 Alpha  occ. eigenvalues --   -1.03491  -0.98805  -0.96401  -0.93460  -0.90371
 Alpha  occ. eigenvalues --   -0.89656  -0.83085  -0.78321  -0.75020  -0.72704
 Alpha  occ. eigenvalues --   -0.71363  -0.67313  -0.65771  -0.61334  -0.60029
 Alpha  occ. eigenvalues --   -0.58022  -0.56449  -0.55435  -0.55263  -0.54464
 Alpha  occ. eigenvalues --   -0.51902  -0.51267  -0.50634  -0.49671  -0.48681
 Alpha  occ. eigenvalues --   -0.47237  -0.46697  -0.46081  -0.45260  -0.44765
 Alpha  occ. eigenvalues --   -0.43805  -0.42866  -0.41313  -0.41076  -0.40712
 Alpha  occ. eigenvalues --   -0.39023  -0.37465  -0.35381  -0.34872  -0.33669
 Alpha  occ. eigenvalues --   -0.33113  -0.30938  -0.29738  -0.28538  -0.24108
 Alpha  occ. eigenvalues --   -0.23317  -0.22593  -0.22251  -0.18695
 Alpha virt. eigenvalues --    0.19819   0.21182   0.22884   0.24053   0.27340
 Alpha virt. eigenvalues --    0.27578   0.28860   0.31909   0.33425   0.33882
 Alpha virt. eigenvalues --    0.35936   0.36318   0.37123   0.38066   0.38512

 Mulliken atomic charges:
              1
     1  C   -0.189493
     2  C   -0.283174
     3  C   -0.251986
     4  C    0.250026
     5  C    0.376139
     6  C   -0.229868
     7  C   -0.086682
     8  C   -0.401731
     9  C   -0.102863
    10  C    0.740590
    11  C    0.773501
    12  C   -0.523130
    13  C   -0.406717
    14  C   -0.438289
    15  N   -0.544122
    16  N   -0.963605
    17  O   -0.647854
    18  O   -0.784480
    19  O   -0.714029
    20  S    0.279033
    21  S    0.193656
    22  H    0.528201
    23  H    0.164604
    24  H    0.160341
    25  H    0.191634
    26  H    0.170781
    27  H    0.200906
    28  H    0.240735
    29  H    0.221386
    30  H    0.162453
    31  H    0.175463
    32  H    0.278516
    33  H    0.252323
    34  H    0.207737
 Sum of Mulliken charges=  -1.00000

 Dipole moment (field-independent basis, Debye):
    X=    18.4529    Y=    -3.5413    Z=    -0.8002  Tot=    18.8067
 Quadrupole moment (field-independent basis, Debye-Ang):
   XX=  -254.5350   YY=  -168.9797   ZZ=  -143.9281
   XY=    43.7926   XZ=     2.1675   YZ=     1.3844

 Normal termination of Gaussian 03 at Wed Jun 22 18:17:39 2016.
