 Gaussian 09, Revision C.01,
 Gaussian 09:  EM64L-G09RevC.01 23-Sep-2011

 ------------------------------------------------------------
 #HF/6-31G* SCF=tight Test Pop=MK iop(6/33=2) iop(6/42=6) opt
 ------------------------------------------------------------

 99/9=1/99;
 ---------------------
 remark line goes here
 ---------------------
 Charge = -2 Multiplicity = 1

 SCF Done:  E(RHF) =  -3287.84125130     A.U. after   16 cycles
 SCF Done:  E(RHF) =  -3287.86479937     A.U. after   15 cycles
 SCF Done:  E(RHF) =  -3287.85855016     A.U. after   17 cycles
 SCF Done:  E(RHF) =  -3287.86577328     A.U. after   17 cycles
 SCF Done:  E(RHF) =  -3287.86960596     A.U. after   16 cycles
 SCF Done:  E(RHF) =  -3287.86952408     A.U. after   16 cycles
 SCF Done:  E(RHF) =  -3287.87241722     A.U. after   13 cycles
 SCF Done:  E(RHF) =  -3287.87233599     A.U. after   15 cycles
 SCF Done:  E(RHF) =  -3287.87420148     A.U. after   13 cycles
 SCF Done:  E(RHF) =  -3287.87488226     A.U. after   13 cycles
 SCF Done:  E(RHF) =  -3287.87515916     A.U. after   13 cycles
 SCF Done:  E(RHF) =  -3287.87524641     A.U. after   13 cycles
 SCF Done:  E(RHF) =  -3287.87526033     A.U. after   12 cycles
 SCF Done:  E(RHF) =  -3287.87526458     A.U. after   10 cycles
 SCF Done:  E(RHF) =  -3287.87526497     A.U. after    9 cycles
 Optimization completed.
    -- Stationary point found.

                         Standard orientation:
 ---------------------------------------------------------------------
 Center     Atomic      Atomic             Coordinates (Angstroms)
 Number     Number       Type             X           Y           Z
 ---------------------------------------------------------------------
      1          6           0        0.124460    0.671780   -0.336846
      2          6           0        0.508050   -1.531927    0.556872
      3          6           0        1.494083    0.856244   -0.410881
      4          6           0        1.869850   -1.340952    0.481091
      5          6           0       -0.397313   -0.538104    0.146227
      6          6           0        2.358889   -0.143145   -0.010781
      7          6           0       -2.798018    1.347540    0.471098
      8          6           0       -4.011043   -0.795153   -0.468574
      9          6           0       -2.686158    0.015517   -0.337746
     10          8           0       -2.987994    1.232538    1.680013
     11          8           0       -4.914153   -0.140895   -1.000349
     12          8           0       -2.619650    2.381108   -0.193498
     13          8           0       -4.010353   -1.970110   -0.104173
     14          8           0       -1.665418   -0.837952    0.235394
     15         35           0        4.262507    0.128244   -0.127868
     16          1           0       -2.367556    0.254980   -1.346409
     17          1           0        2.545644   -2.115500    0.796095
     18          1           0        1.881823    1.789698   -0.776178
     19          1           0        0.099457   -2.453225    0.929051
     20          1           0       -0.543390    1.467216   -0.609033
 ---------------------------------------------------------------------

 The electronic state is 1-A.
 Alpha  occ. eigenvalues -- -489.88759 -64.29910 -58.43846 -58.43691 -58.43676
 Alpha  occ. eigenvalues --  -20.32945 -20.17619 -20.17405 -20.16879 -20.16474
 Alpha  occ. eigenvalues --  -11.08853 -11.08539 -11.05272 -11.04777 -11.02145
 Alpha  occ. eigenvalues --  -11.01662 -11.01206 -11.00839 -10.97885  -9.54707
 Alpha  occ. eigenvalues --   -7.29572  -7.28815  -7.28791  -3.03434  -3.03076
 Alpha  occ. eigenvalues --   -3.03054  -3.02178  -3.02178  -1.16778  -1.06201
 Alpha  occ. eigenvalues --   -1.05313  -0.96222  -0.95646  -0.95037  -0.85532
 Alpha  occ. eigenvalues --   -0.82367  -0.76580  -0.68705  -0.63540  -0.58750
 Alpha  occ. eigenvalues --   -0.49319  -0.46189  -0.43684  -0.43023  -0.40245
 Alpha  occ. eigenvalues --   -0.39611  -0.38722  -0.34942  -0.33135  -0.32459
 Alpha  occ. eigenvalues --   -0.30694  -0.30275  -0.28519  -0.27658  -0.27203
 Alpha  occ. eigenvalues --   -0.24101  -0.23868  -0.23435  -0.22314  -0.20910
 Alpha  occ. eigenvalues --   -0.14506  -0.10370  -0.09171  -0.08157  -0.07977
 Alpha  occ. eigenvalues --   -0.07260  -0.06711  -0.05439
 Alpha virt. eigenvalues --    0.34159   0.34828   0.35887   0.45859   0.48370
 Alpha virt. eigenvalues --    0.51496   0.53343   0.55465   0.56277   0.57495
 Alpha virt. eigenvalues --    0.59675   0.61369   0.64776   0.65081   0.67453

 Mulliken atomic charges:
              1
     1  C   -0.308522
     2  C   -0.276260
     3  C   -0.179896
     4  C   -0.175295
     5  C    0.479574
     6  C   -0.039185
     7  C    0.739701
     8  C    0.731501
     9  C   -0.017041
    10  O   -0.745231
    11  O   -0.770782
    12  O   -0.782569
    13  O   -0.760954
    14  O   -0.648643
    15  Br  -0.248186
    16  H    0.132381
    17  H    0.176491
    18  H    0.190393
    19  H    0.201845
    20  H    0.300679
 Sum of Mulliken atomic charges =  -2.00000

 Dipole moment (field-independent basis, Debye):
    X=             26.1845    Y=             -2.4377    Z=             -1.4398  Tot=             26.3371
 Quadrupole moment (field-independent basis, Debye-Ang):
   XX=           -247.6835   YY=           -129.8447   ZZ=           -113.2615
   XY=              0.2049   XZ=             -0.5057   YZ=             -5.7481

 Normal termination of Gaussian 09 at Wed Jun 22 10:41:20 2016.
