 Gaussian 09, Revision C.01,
 Gaussian 09:  EM64L-G09RevC.01 23-Sep-2011

 ------------------------------------------------------------
 #HF/6-31G* SCF=tight Test Pop=MK iop(6/33=2) iop(6/42=6) opt
 ------------------------------------------------------------

 99/9=1/99;
 ---------------------
 remark line goes here
 ---------------------
 Charge =  0 Multiplicity = 1

 SCF Done:  E(RHF) =  -965.798078872     A.U. after   17 cycles
 SCF Done:  E(RHF) =  -965.808740716     A.U. after   15 cycles
 SCF Done:  E(RHF) =  -965.810605848     A.U. after   14 cycles
 SCF Done:  E(RHF) =  -965.811073706     A.U. after   14 cycles
 SCF Done:  E(RHF) =  -965.811294474     A.U. after   15 cycles
 SCF Done:  E(RHF) =  -965.811953684     A.U. after   13 cycles
 SCF Done:  E(RHF) =  -965.812307659     A.U. after   14 cycles
 SCF Done:  E(RHF) =  -965.812468727     A.U. after   16 cycles
 SCF Done:  E(RHF) =  -965.812582151     A.U. after   13 cycles
 SCF Done:  E(RHF) =  -965.812648610     A.U. after   13 cycles
 SCF Done:  E(RHF) =  -965.812678466     A.U. after   13 cycles
 SCF Done:  E(RHF) =  -965.812687399     A.U. after   12 cycles
 SCF Done:  E(RHF) =  -965.812689996     A.U. after   10 cycles
 SCF Done:  E(RHF) =  -965.812690257     A.U. after    8 cycles
 SCF Done:  E(RHF) =  -965.812690278     A.U. after    8 cycles
 Optimization completed.
    -- Stationary point found.

                         Standard orientation:
 ---------------------------------------------------------------------
 Center     Atomic      Atomic             Coordinates (Angstroms)
 Number     Number       Type             X           Y           Z
 ---------------------------------------------------------------------
      1          6           0       -5.053305   -0.221168    0.009605
      2          6           0       -3.574037   -0.549409   -0.002734
      3          8           0       -3.171499   -1.676565   -0.002967
      4          7           0       -2.768802    0.552585   -0.006000
      5          6           0       -1.362334    0.625437   -0.003620
      6          6           0       -0.803883    1.914298   -0.001862
      7          6           0        0.556141    2.106846    0.000112
      8          6           0        1.395573    0.997917    0.000398
      9          6           0        0.831867   -0.271910   -0.001426
     10          6           0       -0.540440   -0.488112   -0.003533
     11         16           0        2.119450   -1.451457   -0.000689
     12          6           0        3.282084   -0.124480    0.001934
     13          7           0        2.782891    1.040175    0.002271
     14          6           0        4.753809   -0.404817    0.003279
     15          1           0        5.038086   -0.975891    0.880792
     16          1           0        5.039807   -0.976039   -0.873577
     17          1           0       -0.953369   -1.473364   -0.004961
     18          1           0        0.975719    3.095542    0.001483
     19          1           0       -1.456960    2.770090   -0.002051
     20          1           0       -3.232270    1.432406   -0.005219
     21          1           0       -5.320112    0.287921    0.930584
     22          1           0       -5.316762    0.424801   -0.821731
     23          1           0       -5.611929   -1.142119   -0.061138
     24          1           0        5.287112    0.535535    0.003745
 ---------------------------------------------------------------------

 The electronic state is 1-A.
 Alpha  occ. eigenvalues --  -91.96879 -20.53783 -15.60851 -15.56572 -11.36284
 Alpha  occ. eigenvalues --  -11.31395 -11.29261 -11.26992 -11.26100 -11.24236
 Alpha  occ. eigenvalues --  -11.24158 -11.23971 -11.23785 -11.23476  -8.97982
 Alpha  occ. eigenvalues --   -6.66229  -6.66143  -6.65958  -1.40587  -1.29014
 Alpha  occ. eigenvalues --   -1.26447  -1.14749  -1.06859  -1.04652  -1.01904
 Alpha  occ. eigenvalues --   -0.99040  -0.95491  -0.86111  -0.82592  -0.78817
 Alpha  occ. eigenvalues --   -0.75854  -0.71940  -0.68913  -0.66455  -0.64843
 Alpha  occ. eigenvalues --   -0.63422  -0.60942  -0.60814  -0.60481  -0.58726
 Alpha  occ. eigenvalues --   -0.57611  -0.56581  -0.56070  -0.54928  -0.54207
 Alpha  occ. eigenvalues --   -0.53067  -0.48665  -0.47612  -0.42799  -0.42217
 Alpha  occ. eigenvalues --   -0.41603  -0.40898  -0.31961  -0.29355
 Alpha virt. eigenvalues --    0.11518   0.13571   0.16655   0.18647   0.20736
 Alpha virt. eigenvalues --    0.22688   0.25439   0.25528   0.26213   0.28184
 Alpha virt. eigenvalues --    0.30260   0.31969   0.32061   0.32383   0.32783

 Mulliken atomic charges:
              1
     1  C   -0.595453
     2  C    0.757855
     3  O   -0.588516
     4  N   -0.900889
     5  C    0.361508
     6  C   -0.272943
     7  C   -0.182717
     8  C    0.244985
     9  C   -0.221891
    10  C   -0.240434
    11  S    0.272518
    12  C    0.100242
    13  N   -0.522363
    14  C   -0.529784
    15  H    0.194081
    16  H    0.194075
    17  H    0.289946
    18  H    0.227337
    19  H    0.197856
    20  H    0.394023
    21  H    0.193784
    22  H    0.187874
    23  H    0.222866
    24  H    0.216041
 Sum of Mulliken atomic charges =   0.00000

 Dipole moment (field-independent basis, Debye):
    X=             -1.6633    Y=              2.6406    Z=              0.0224  Tot=              3.1208
 Quadrupole moment (field-independent basis, Debye-Ang):
   XX=            -66.6086   YY=            -90.4128   ZZ=            -91.7028
   XY=            -15.9985   XZ=             -0.0877   YZ=             -0.0032

 Normal termination of Gaussian 09 at Thu Jun 16 11:37:51 2016.
