 Gaussian 09, Revision C.01,
 Gaussian 09:  EM64L-G09RevC.01 23-Sep-2011

 ------------------------------------------------------------
 #HF/6-31G* SCF=tight Test Pop=MK iop(6/33=2) iop(6/42=6) opt
 ------------------------------------------------------------

 99/9=1/99;
 ---------------------
 remark line goes here
 ---------------------
 Charge =  0 Multiplicity = 1

 SCF Done:  E(RHF) =  -1703.21132721     A.U. after   16 cycles
 SCF Done:  E(RHF) =  -1703.23230910     A.U. after   14 cycles
 SCF Done:  E(RHF) =  -1703.23726886     A.U. after   14 cycles
 SCF Done:  E(RHF) =  -1703.24020594     A.U. after   15 cycles
 SCF Done:  E(RHF) =  -1703.24149222     A.U. after   14 cycles
 SCF Done:  E(RHF) =  -1703.24175080     A.U. after   14 cycles
 SCF Done:  E(RHF) =  -1703.24248548     A.U. after   13 cycles
 SCF Done:  E(RHF) =  -1703.24269158     A.U. after   13 cycles
 SCF Done:  E(RHF) =  -1703.24296956     A.U. after   15 cycles
 SCF Done:  E(RHF) =  -1703.24344410     A.U. after   13 cycles
 SCF Done:  E(RHF) =  -1703.24447488     A.U. after   12 cycles
 SCF Done:  E(RHF) =  -1703.24449341     A.U. after   11 cycles
 SCF Done:  E(RHF) =  -1703.24449518     A.U. after   11 cycles
 SCF Done:  E(RHF) =  -1703.24449668     A.U. after    9 cycles
 SCF Done:  E(RHF) =  -1703.24449732     A.U. after   10 cycles
 SCF Done:  E(RHF) =  -1703.24449779     A.U. after   11 cycles
 SCF Done:  E(RHF) =  -1703.24449801     A.U. after    9 cycles
 SCF Done:  E(RHF) =  -1703.24449814     A.U. after    9 cycles
 SCF Done:  E(RHF) =  -1703.24449819     A.U. after    8 cycles
 SCF Done:  E(RHF) =  -1703.24449821     A.U. after    7 cycles
 Optimization completed.
    -- Stationary point found.

                         Standard orientation:
 ---------------------------------------------------------------------
 Center     Atomic      Atomic             Coordinates (Angstroms)
 Number     Number       Type             X           Y           Z
 ---------------------------------------------------------------------
      1          6           0       -0.941945    2.856275    0.099708
      2          6           0        0.379825    2.642627    0.405265
      3          6           0        0.109010    0.246068    0.250380
      4          6           0       -1.764419    1.760170   -0.140014
      5          6           0        0.915045    1.346460    0.483603
      6          6           0       -1.222960    0.484086   -0.063204
      7          6           0       -3.605354    0.666206   -0.605564
      8          6           0       -6.343482   -2.784947    1.318616
      9          6           0       -5.937546   -1.358663    0.945969
     10          6           0        3.070017    0.149075    0.912591
     11          6           0        6.334203   -0.899225   -0.922965
     12          6           0       -5.711433   -1.213959   -0.558373
     13          6           0        4.508485    0.455833    1.297194
     14          6           0        5.386543   -0.792924    1.316105
     15          7           0       -3.115450    1.822287   -0.443046
     16          7           0        6.231290   -1.491130   -2.157435
     17          7           0        2.282497    1.252893    0.810499
     18          7           0        5.515084   -1.434668    0.026250
     19          8           0        2.680297   -0.973097    0.727954
     20         16           0       -2.477952   -0.680604   -0.410777
     21         16           0       -5.281674    0.466897   -1.113121
     22          8           0        7.077168    0.023512   -0.712112
     23          1           0        4.703993   -1.922061   -0.285146
     24          1           0        2.734436    2.124515    0.971053
     25          1           0        5.963718   -2.449570   -2.198312
     26          1           0        6.963014   -1.236349   -2.783346
     27          1           0       -5.034765   -1.085270    1.481619
     28          1           0       -6.707931   -0.659908    1.255267
     29          1           0        6.374467   -0.522274    1.656526
     30          1           0        4.978470   -1.519921    2.004405
     31          1           0        4.925583    1.183158    0.608270
     32          1           0        4.506636    0.916746    2.282939
     33          1           0       -6.628001   -1.427255   -1.096862
     34          1           0       -4.972561   -1.919052   -0.919252
     35          1           0       -7.260044   -3.079169    0.815323
     36          1           0       -5.571055   -3.498544    1.047387
     37          1           0       -6.511243   -2.870043    2.387118
     38          1           0        0.504181   -0.744740    0.306538
     39          1           0        1.020682    3.487634    0.588873
     40          1           0       -1.345152    3.849925    0.043494
 ---------------------------------------------------------------------

 The electronic state is 1-A.
 Alpha  occ. eigenvalues --  -91.98176 -91.95966 -20.54801 -20.51281 -15.61541
 Alpha  occ. eigenvalues --  -15.57584 -15.57520 -15.57308 -11.36973 -11.36944
 Alpha  occ. eigenvalues --  -11.34016 -11.29879 -11.27779 -11.27011 -11.26961
 Alpha  occ. eigenvalues --  -11.26574 -11.24761 -11.24557 -11.24545 -11.24253
 Alpha  occ. eigenvalues --  -11.23375 -11.22221  -8.99241  -8.96983  -6.67489
 Alpha  occ. eigenvalues --   -6.67400  -6.67204  -6.65268  -6.65112  -6.64916
 Alpha  occ. eigenvalues --   -1.41486  -1.39772  -1.30081  -1.27197  -1.24193
 Alpha  occ. eigenvalues --   -1.19418  -1.15543  -1.10329  -1.07529  -1.05835
 Alpha  occ. eigenvalues --   -1.03164  -1.00906  -0.98133  -0.92286  -0.89992
 Alpha  occ. eigenvalues --   -0.85668  -0.83210  -0.82221  -0.79998  -0.79049
 Alpha  occ. eigenvalues --   -0.75323  -0.74960  -0.72300  -0.70639  -0.69886
 Alpha  occ. eigenvalues --   -0.67199  -0.66657  -0.65528  -0.63932  -0.62391
 Alpha  occ. eigenvalues --   -0.61623  -0.61003  -0.60302  -0.60176  -0.59672
 Alpha  occ. eigenvalues --   -0.59032  -0.57992  -0.57144  -0.56392  -0.55944
 Alpha  occ. eigenvalues --   -0.54999  -0.54399  -0.52733  -0.52620  -0.50470
 Alpha  occ. eigenvalues --   -0.50092  -0.49153  -0.48388  -0.45634  -0.44281
 Alpha  occ. eigenvalues --   -0.43809  -0.43372  -0.41880  -0.41776  -0.41634
 Alpha  occ. eigenvalues --   -0.39205  -0.36760  -0.32663  -0.29133
 Alpha virt. eigenvalues --    0.10441   0.12897   0.15667   0.17122   0.18120
 Alpha virt. eigenvalues --    0.20747   0.21725   0.21973   0.22858   0.24282
 Alpha virt. eigenvalues --    0.24824   0.25822   0.26227   0.26632   0.27531

 Mulliken atomic charges:
              1
     1  C   -0.179160
     2  C   -0.271833
     3  C   -0.235303
     4  C    0.246548
     5  C    0.362159
     6  C   -0.233494
     7  C   -0.078573
     8  C   -0.486768
     9  C   -0.304664
    10  C    0.799302
    11  C    0.936688
    12  C   -0.523282
    13  C   -0.458775
    14  C   -0.112576
    15  N   -0.509973
    16  N   -0.914774
    17  N   -0.916939
    18  N   -0.802114
    19  O   -0.624770
    20  S    0.295828
    21  S    0.244977
    22  O   -0.640091
    23  H    0.401220
    24  H    0.400547
    25  H    0.375037
    26  H    0.389163
    27  H    0.182973
    28  H    0.180343
    29  H    0.215883
    30  H    0.196465
    31  H    0.226468
    32  H    0.195673
    33  H    0.210154
    34  H    0.210404
    35  H    0.160901
    36  H    0.164115
    37  H    0.174356
    38  H    0.286728
    39  H    0.203876
    40  H    0.233279
 Sum of Mulliken atomic charges =   0.00000

 Dipole moment (field-independent basis, Debye):
    X=             -0.2141    Y=             -2.0375    Z=              1.2237  Tot=              2.3864
 Quadrupole moment (field-independent basis, Debye-Ang):
   XX=           -154.0760   YY=           -133.2676   ZZ=           -140.9664
   XY=              6.3939   XZ=             -3.4078   YZ=             10.3898

 Normal termination of Gaussian 09 at Thu Jun 16 14:11:22 2016.
