 Gaussian 09, Revision C.01,
 Gaussian 09:  EM64L-G09RevC.01 23-Sep-2011

 ------------------------------------------------------------
 #HF/6-31G* SCF=tight Test Pop=MK iop(6/33=2) iop(6/42=6) opt
 ------------------------------------------------------------

 99/9=1/99;
 ---------------------
 remark line goes here
 ---------------------
 Charge =  0 Multiplicity = 1

 SCF Done:  E(RHF) =  -1305.72516061     A.U. after   16 cycles
 SCF Done:  E(RHF) =  -1305.73836637     A.U. after   14 cycles
 SCF Done:  E(RHF) =  -1305.73954957     A.U. after   14 cycles
 SCF Done:  E(RHF) =  -1305.73986333     A.U. after   14 cycles
 SCF Done:  E(RHF) =  -1305.74021422     A.U. after   14 cycles
 SCF Done:  E(RHF) =  -1305.74052342     A.U. after   14 cycles
 SCF Done:  E(RHF) =  -1305.74088759     A.U. after   14 cycles
 SCF Done:  E(RHF) =  -1305.74137920     A.U. after   13 cycles
 SCF Done:  E(RHF) =  -1305.74162995     A.U. after   13 cycles
 SCF Done:  E(RHF) =  -1305.74172519     A.U. after   12 cycles
 SCF Done:  E(RHF) =  -1305.74190244     A.U. after   11 cycles
 SCF Done:  E(RHF) =  -1305.74192045     A.U. after   12 cycles
 SCF Done:  E(RHF) =  -1305.74193939     A.U. after   11 cycles
 SCF Done:  E(RHF) =  -1305.74195465     A.U. after   11 cycles
 SCF Done:  E(RHF) =  -1305.74196125     A.U. after   11 cycles
 SCF Done:  E(RHF) =  -1305.74196193     A.U. after   10 cycles
 SCF Done:  E(RHF) =  -1305.74196293     A.U. after   10 cycles
 SCF Done:  E(RHF) =  -1305.74196321     A.U. after    9 cycles
 SCF Done:  E(RHF) =  -1305.74196327     A.U. after    8 cycles
 SCF Done:  E(RHF) =  -1305.74196338     A.U. after    9 cycles
 Optimization completed.
    -- Stationary point found.

                         Standard orientation:
 ---------------------------------------------------------------------
 Center     Atomic      Atomic             Coordinates (Angstroms)
 Number     Number       Type             X           Y           Z
 ---------------------------------------------------------------------
      1          6           0        5.135775    2.636045    1.684993
      2          6           0       -3.214897   -0.898102    1.953237
      3          6           0       -1.917658   -1.322146    1.798252
      4          6           0        5.722634    2.236388    0.336529
      5          6           0       -1.785925   -0.354909   -0.412622
      6          6           0       -3.822165   -0.189794    0.921656
      7          6           0       -1.195534   -1.057161    0.623237
      8          6           0       -3.097767    0.066756   -0.235691
      9          6           0       -5.403194    0.904127   -0.138098
     10          6           0        1.070242   -1.388929   -0.387863
     11          6           0        4.639108    0.146482   -0.348454
     12          6           0       -6.729997    1.540870   -0.418430
     13          6           0        2.388306   -2.077747   -0.072324
     14          6           0        3.451349   -1.827315   -1.139597
     15          7           0       -5.120843    0.299369    0.938908
     16          7           0        4.783226    1.492498   -0.487182
     17          7           0        0.124680   -1.548308    0.576546
     18          7           0        3.825493   -0.437712   -1.279981
     19          8           0        0.894915   -0.770189   -1.403610
     20          8           0        5.188594   -0.481832    0.523448
     21         16           0       -4.111561    0.963614   -1.338850
     22          1           0        3.139952    0.134978   -1.720464
     23          1           0        0.405127   -2.069190    1.376370
     24          1           0        4.493293    1.903295   -1.344371
     25          1           0        4.337276   -2.391009   -0.889924
     26          1           0        3.093825   -2.168185   -2.101522
     27          1           0        2.755386   -1.740376    0.891572
     28          1           0        2.202339   -3.146365    0.015415
     29          1           0       -6.617995    2.604431   -0.600717
     30          1           0       -7.193823    1.099170   -1.294047
     31          1           0       -7.374256    1.393317    0.437005
     32          1           0       -1.246740   -0.146848   -1.310980
     33          1           0        6.615357    1.642728    0.482798
     34          1           0        6.004899    3.120775   -0.223107
     35          1           0       -1.443030   -1.868417    2.595064
     36          1           0       -3.761107   -1.104269    2.854676
     37          1           0        4.250522    3.250349    1.554759
     38          1           0        4.863717    1.754319    2.251999
     39          1           0        5.862596    3.201311    2.261401
 ---------------------------------------------------------------------

 The electronic state is 1-A.
 Alpha  occ. eigenvalues --  -91.97187 -20.54556 -20.50646 -15.61285 -15.57286
 Alpha  occ. eigenvalues --  -15.56933 -15.56845 -11.36692 -11.36261 -11.31688
 Alpha  occ. eigenvalues --  -11.29591 -11.27305 -11.26417 -11.26190 -11.25658
 Alpha  occ. eigenvalues --  -11.24500 -11.24262 -11.24249 -11.24019 -11.23876
 Alpha  occ. eigenvalues --  -11.20607  -8.98292  -6.66539  -6.66453  -6.66268
 Alpha  occ. eigenvalues --   -1.41229  -1.39203  -1.29308  -1.26919  -1.24048
 Alpha  occ. eigenvalues --   -1.20725  -1.15099  -1.07165  -1.05981  -1.03555
 Alpha  occ. eigenvalues --   -1.01197  -0.99983  -0.96154  -0.90867  -0.86271
 Alpha  occ. eigenvalues --   -0.84309  -0.82385  -0.79076  -0.78315  -0.76140
 Alpha  occ. eigenvalues --   -0.75879  -0.71868  -0.69652  -0.67759  -0.66959
 Alpha  occ. eigenvalues --   -0.65342  -0.64247  -0.62520  -0.62273  -0.61291
 Alpha  occ. eigenvalues --   -0.61101  -0.60353  -0.59694  -0.58843  -0.58248
 Alpha  occ. eigenvalues --   -0.57312  -0.55966  -0.55499  -0.55206  -0.53977
 Alpha  occ. eigenvalues --   -0.53383  -0.52883  -0.51922  -0.51496  -0.49169
 Alpha  occ. eigenvalues --   -0.49120  -0.47919  -0.43596  -0.42806  -0.42526
 Alpha  occ. eigenvalues --   -0.41898  -0.41202  -0.39338  -0.37742  -0.32263
 Alpha  occ. eigenvalues --   -0.29722
 Alpha virt. eigenvalues --    0.11139   0.13270   0.16322   0.18139   0.20876
 Alpha virt. eigenvalues --    0.22046   0.22406   0.24295   0.25196   0.25846
 Alpha virt. eigenvalues --    0.25936   0.26658   0.27208   0.29628   0.30798

 Mulliken atomic charges:
              1
     1  C   -0.476543
     2  C   -0.182430
     3  C   -0.273114
     4  C   -0.106763
     5  C   -0.238206
     6  C    0.245799
     7  C    0.362048
     8  C   -0.222305
     9  C    0.100927
    10  C    0.798329
    11  C    1.008562
    12  C   -0.530007
    13  C   -0.459237
    14  C   -0.110968
    15  N   -0.521459
    16  N   -0.828130
    17  N   -0.916765
    18  N   -0.821215
    19  O   -0.624814
    20  O   -0.661761
    21  S    0.271018
    22  H    0.396299
    23  H    0.399718
    24  H    0.378762
    25  H    0.215146
    26  H    0.194541
    27  H    0.225544
    28  H    0.193805
    29  H    0.194328
    30  H    0.194448
    31  H    0.216964
    32  H    0.285461
    33  H    0.198158
    34  H    0.162250
    35  H    0.201768
    36  H    0.229171
    37  H    0.156047
    38  H    0.190221
    39  H    0.154404
 Sum of Mulliken atomic charges =   0.00000

 Dipole moment (field-independent basis, Debye):
    X=             -1.0948    Y=              0.4780    Z=             -0.3030  Tot=              1.2324
 Quadrupole moment (field-independent basis, Debye-Ang):
   XX=           -137.6060   YY=           -119.0199   ZZ=           -129.5914
   XY=              3.6908   XZ=             -2.9629   YZ=             -7.4483

 Normal termination of Gaussian 09 at Thu Jun 16 14:28:45 2016.
