 Gaussian 09, Revision C.01,
 Gaussian 09:  EM64L-G09RevC.01 23-Sep-2011

 ----------------------------------------------------------------------
 #HF/6-31G* SCF=tight Test Pop=MK iop(6/33=2) iop(6/42=6) opt(MaxCyc=10
 0)
 ----------------------------------------------------------------------

 99/9=1/99;
 ---------------------
 remark line goes here
 ---------------------
 Charge = -2 Multiplicity = 1

 SCF Done:  E(RHF) =  -414.115854100     A.U. after   14 cycles
 SCF Done:  E(RHF) =  -414.130919953     A.U. after   14 cycles
 SCF Done:  E(RHF) =  -414.107934508     A.U. after   15 cycles
 SCF Done:  E(RHF) =  -414.133182567     A.U. after   14 cycles
 SCF Done:  E(RHF) =  -414.123908802     A.U. after   13 cycles
 SCF Done:  E(RHF) =  -414.134241641     A.U. after   13 cycles
 SCF Done:  E(RHF) =  -414.135411558     A.U. after   13 cycles
 SCF Done:  E(RHF) =  -414.136101275     A.U. after   14 cycles
 SCF Done:  E(RHF) =  -414.136207826     A.U. after   12 cycles
 SCF Done:  E(RHF) =  -414.136251275     A.U. after   12 cycles
 SCF Done:  E(RHF) =  -414.136261448     A.U. after   11 cycles
 SCF Done:  E(RHF) =  -414.136269621     A.U. after   11 cycles
 SCF Done:  E(RHF) =  -414.136292856     A.U. after   12 cycles
 SCF Done:  E(RHF) =  -414.136297725     A.U. after   11 cycles
 Optimization completed.
    -- Stationary point found.

                         Standard orientation:
 ---------------------------------------------------------------------
 Center     Atomic      Atomic             Coordinates (Angstroms)
 Number     Number       Type             X           Y           Z
 ---------------------------------------------------------------------
      1          6           0        0.000016   -0.000289    0.799837
      2          6           0        1.332819   -0.104616    0.008642
      3          6           0       -1.332784    0.104571    0.008550
      4          8           0        2.222373    0.710073    0.313944
      5          8           0        1.424027   -1.039314   -0.800732
      6          8           0       -2.222632   -0.709887    0.313711
      7          8           0       -1.423778    1.039500   -0.800520
      8          1           0        0.060349    0.877111    1.443589
      9          1           0       -0.060575   -0.878089    1.443020
 ---------------------------------------------------------------------

 The electronic state is 1-A.
 Alpha  occ. eigenvalues --  -20.12619 -20.12618 -20.12356 -20.12355 -10.96860
 Alpha  occ. eigenvalues --  -10.96858 -10.86482  -1.01272  -1.00506  -0.90222
 Alpha  occ. eigenvalues --   -0.90212  -0.62970  -0.37737  -0.32514  -0.26612
 Alpha  occ. eigenvalues --   -0.26360  -0.26003  -0.22600  -0.20790  -0.18096
 Alpha  occ. eigenvalues --   -0.15701  -0.05781  -0.03849  -0.03019  -0.02906
 Alpha  occ. eigenvalues --   -0.02635  -0.01291
 Alpha virt. eigenvalues --    0.58134   0.59577   0.63187   0.66741   0.78785
 Alpha virt. eigenvalues --    0.82826   0.85687   0.89242   0.92897   0.94371
 Alpha virt. eigenvalues --    1.14449   1.18504   1.21099   1.23669   1.25077

 Mulliken atomic charges:
              1
     1  C   -0.454680
     2  C    0.734983
     3  C    0.734959
     4  O   -0.808649
     5  O   -0.785725
     6  O   -0.808688
     7  O   -0.785650
     8  H    0.086723
     9  H    0.086726
 Sum of Mulliken atomic charges =  -2.00000

 Dipole moment (field-independent basis, Debye):
    X=              0.0001    Y=             -0.0008    Z=              2.7471  Tot=              2.7471
 Quadrupole moment (field-independent basis, Debye-Ang):
   XX=            -84.0088   YY=            -53.2465   ZZ=            -47.4744
   XY=             -2.1749   XZ=              0.0008   YZ=             -0.0009

 Normal termination of Gaussian 09 at Fri Jun 17 15:24:25 2016.
