 Gaussian 09, Revision C.01,
 Gaussian 09:  EM64L-G09RevC.01 23-Sep-2011

 ------------------------------------------------------------
 #HF/6-31G* SCF=tight Test Pop=MK iop(6/33=2) iop(6/42=6) opt
 ------------------------------------------------------------

 99/9=1/99;
 ---------------------
 remark line goes here
 ---------------------
 Charge = -1 Multiplicity = 1

 SCF Done:  E(RHF) =  -1191.86107033     A.U. after   16 cycles
 SCF Done:  E(RHF) =  -1191.88400328     A.U. after   15 cycles
 SCF Done:  E(RHF) =  -1191.88864808     A.U. after   16 cycles
 SCF Done:  E(RHF) =  -1191.88273841     A.U. after   17 cycles
 SCF Done:  E(RHF) =  -1191.89187270     A.U. after   13 cycles
 SCF Done:  E(RHF) =  -1191.89392862     A.U. after   16 cycles
 SCF Done:  E(RHF) =  -1191.89525357     A.U. after   13 cycles
 SCF Done:  E(RHF) =  -1191.89557664     A.U. after   13 cycles
 SCF Done:  E(RHF) =  -1191.89613812     A.U. after   13 cycles
 SCF Done:  E(RHF) =  -1191.89666871     A.U. after   13 cycles
 SCF Done:  E(RHF) =  -1191.91921434     A.U. after   13 cycles
 SCF Done:  E(RHF) =  -1191.91936128     A.U. after   12 cycles
 SCF Done:  E(RHF) =  -1191.91940550     A.U. after   13 cycles
 SCF Done:  E(RHF) =  -1191.91946614     A.U. after   11 cycles
 SCF Done:  E(RHF) =  -1191.91950190     A.U. after   12 cycles
 SCF Done:  E(RHF) =  -1191.91950774     A.U. after   11 cycles
 SCF Done:  E(RHF) =  -1191.91950976     A.U. after   10 cycles
 SCF Done:  E(RHF) =  -1191.91951056     A.U. after   10 cycles
 SCF Done:  E(RHF) =  -1191.91951077     A.U. after    9 cycles
 SCF Done:  E(RHF) =  -1191.91951079     A.U. after    7 cycles
 Optimization completed.
    -- Stationary point found.

                         Standard orientation:
 ---------------------------------------------------------------------
 Center     Atomic      Atomic             Coordinates (Angstroms)
 Number     Number       Type             X           Y           Z
 ---------------------------------------------------------------------
      1          6           0        1.344003    1.922771   -0.255181
      2          6           0        0.056255    1.458051   -0.333999
      3          6           0        0.793573   -0.834401   -0.091226
      4          6           0        2.388657    1.014545   -0.092034
      5          6           0       -0.238035    0.079778   -0.255670
      6          6           0        2.088655   -0.338358   -0.012734
      7          6           0        4.456517    0.307416    0.149094
      8          6           0        5.949403    0.340138    0.280638
      9          6           0       -2.160409   -1.480104   -0.236172
     10          6           0       -4.534847    0.966314    0.238429
     11          6           0       -3.673748   -1.451987   -0.383354
     12          6           0       -4.430476   -0.540708    0.602300
     13          7           0        3.738200    1.339566    0.003417
     14          7           0       -1.580691   -0.261304   -0.359751
     15          8           0       -1.558917   -2.509902   -0.042472
     16          8           0       -3.706866    1.401150   -0.591436
     17          8           0       -5.417520    1.577825    0.819695
     18         16           0        3.584914   -1.225510    0.191624
     19          1           0       -2.247778    0.497089   -0.503941
     20          1           0       -5.445293   -0.908573    0.707183
     21          1           0       -3.987992   -0.612099    1.594540
     22          1           0       -3.905908   -1.143640   -1.398386
     23          1           0       -3.991640   -2.480779   -0.264626
     24          1           0        0.582095   -1.879814   -0.025873
     25          1           0       -0.762817    2.144402   -0.452755
     26          1           0        1.555819    2.974791   -0.314864
     27          1           0        6.267246   -0.087279    1.226536
     28          1           0        6.423930   -0.225675   -0.515079
     29          1           0        6.280292    1.368582    0.228770
 ---------------------------------------------------------------------

 The electronic state is 1-A.
 Alpha  occ. eigenvalues --  -91.88590 -20.40959 -20.32807 -20.31701 -15.48620
 Alpha  occ. eigenvalues --  -15.45989 -11.23106 -11.22801 -11.18367 -11.17805
 Alpha  occ. eigenvalues --  -11.17049 -11.16647 -11.16391 -11.14429 -11.13126
 Alpha  occ. eigenvalues --  -11.13070 -11.10488 -11.08424  -8.89692  -6.57947
 Alpha  occ. eigenvalues --   -6.57861  -6.57679  -1.27237  -1.21119  -1.20507
 Alpha  occ. eigenvalues --   -1.13553  -1.10555  -1.04461  -0.97876  -0.95335
 Alpha  occ. eigenvalues --   -0.92678  -0.89625  -0.86600  -0.78065  -0.74620
 Alpha  occ. eigenvalues --   -0.71983  -0.67239  -0.65714  -0.60825  -0.58227
 Alpha  occ. eigenvalues --   -0.55764  -0.55117  -0.54411  -0.53546  -0.51409
 Alpha  occ. eigenvalues --   -0.50377  -0.50005  -0.47763  -0.47451  -0.46787
 Alpha  occ. eigenvalues --   -0.46124  -0.45238  -0.44453  -0.43309  -0.42525
 Alpha  occ. eigenvalues --   -0.40983  -0.39245  -0.38219  -0.36586  -0.35055
 Alpha  occ. eigenvalues --   -0.33710  -0.32198  -0.30945  -0.29384  -0.23820
 Alpha  occ. eigenvalues --   -0.22637  -0.22314  -0.21978  -0.18522
 Alpha virt. eigenvalues --    0.20594   0.23540   0.24694   0.28665   0.32392
 Alpha virt. eigenvalues --    0.33399   0.34442   0.36742   0.38622   0.38703
 Alpha virt. eigenvalues --    0.38991   0.39154   0.41654   0.42369   0.44130

 Mulliken atomic charges:
              1
     1  C   -0.191574
     2  C   -0.284212
     3  C   -0.255618
     4  C    0.233207
     5  C    0.375249
     6  C   -0.217695
     7  C    0.092941
     8  C   -0.522982
     9  C    0.740326
    10  C    0.773155
    11  C   -0.406021
    12  C   -0.437696
    13  N   -0.525142
    14  N   -0.962858
    15  O   -0.648861
    16  O   -0.783347
    17  O   -0.715644
    18  S    0.230149
    19  H    0.526726
    20  H    0.163382
    21  H    0.159919
    22  H    0.191119
    23  H    0.169566
    24  H    0.275429
    25  H    0.249337
    26  H    0.206845
    27  H    0.180615
    28  H    0.179911
    29  H    0.203774
 Sum of Mulliken atomic charges =  -1.00000

 Dipole moment (field-independent basis, Debye):
    X=             14.7320    Y=             -3.5468    Z=             -0.6924  Tot=             15.1687
 Quadrupole moment (field-independent basis, Debye-Ang):
   XX=           -191.8935   YY=           -136.8980   ZZ=           -117.7952
   XY=             23.8302   XZ=              8.0288   YZ=             -1.0119

 Normal termination of Gaussian 09 at Tue Jun 21 19:12:30 2016.
