 Gaussian 09, Revision C.01,
 Gaussian 09:  EM64L-G09RevC.01 23-Sep-2011

 ------------------------------------------------------------
 #HF/6-31G* SCF=tight Test Pop=MK iop(6/33=2) iop(6/42=6) opt
 ------------------------------------------------------------

 99/9=1/99;
 ---------------------
 remark line goes here
 ---------------------
 Charge =  0 Multiplicity = 1

 SCF Done:  E(RHF) =  -945.190762358     A.U. after   16 cycles
 SCF Done:  E(RHF) =  -945.203305483     A.U. after   14 cycles
 SCF Done:  E(RHF) =  -945.207317272     A.U. after   13 cycles
 SCF Done:  E(RHF) =  -945.207583609     A.U. after   13 cycles
 SCF Done:  E(RHF) =  -945.207728346     A.U. after   13 cycles
 SCF Done:  E(RHF) =  -945.207768212     A.U. after   13 cycles
 SCF Done:  E(RHF) =  -945.207807974     A.U. after   13 cycles
 SCF Done:  E(RHF) =  -945.207813726     A.U. after   12 cycles
 SCF Done:  E(RHF) =  -945.207822862     A.U. after   10 cycles
 SCF Done:  E(RHF) =  -945.207825005     A.U. after   10 cycles
 SCF Done:  E(RHF) =  -945.207825316     A.U. after    9 cycles
 SCF Done:  E(RHF) =  -945.207825400     A.U. after    8 cycles
 Optimization completed.
    -- Stationary point found.

                         Standard orientation:
 ---------------------------------------------------------------------
 Center     Atomic      Atomic             Coordinates (Angstroms)
 Number     Number       Type             X           Y           Z
 ---------------------------------------------------------------------
      1          6           0       -2.196480   -1.944645    0.064101
      2          6           0       -3.058046   -0.859778    0.040323
      3          6           0       -2.548413    0.423198   -0.001792
      4          6           0       -1.178133    0.621362   -0.017576
      5          6           0       -0.291970   -0.451478    0.009412
      6          6           0       -0.833186   -1.738557    0.049004
      7          6           0        1.182390   -0.363951   -0.007104
      8          7           0        1.970845    0.679894    0.251645
      9          7           0        3.233195    0.290709    0.156307
     10          7           0        3.213086   -0.925508   -0.142513
     11          7           0        1.962518   -1.373006   -0.254042
     12         17           0       -0.635208    2.282820   -0.091937
     13          1           0        1.749863    1.621455    0.475997
     14          1           0       -0.157256   -2.570619    0.065611
     15          1           0       -3.202464    1.273285   -0.025700
     16          1           0       -4.122295   -1.007540    0.053154
     17          1           0       -2.583790   -2.946042    0.095872
 ---------------------------------------------------------------------

 The electronic state is 1-A.
 Alpha  occ. eigenvalues -- -104.85884 -15.67451 -15.65351 -15.63674 -15.59275
 Alpha  occ. eigenvalues --  -11.34005 -11.33700 -11.29457 -11.27080 -11.26952
 Alpha  occ. eigenvalues --  -11.26751 -11.26178 -10.59248  -8.06178  -8.05863
 Alpha  occ. eigenvalues --   -8.05844  -1.51703  -1.26267  -1.23579  -1.19973
 Alpha  occ. eigenvalues --   -1.14803  -1.06492  -1.02678  -0.91563  -0.90566
 Alpha  occ. eigenvalues --   -0.85774  -0.85011  -0.78205  -0.72418  -0.68911
 Alpha  occ. eigenvalues --   -0.67632  -0.67131  -0.63640  -0.61487  -0.57619
 Alpha  occ. eigenvalues --   -0.57500  -0.54603  -0.53247  -0.49751  -0.48824
 Alpha  occ. eigenvalues --   -0.46886  -0.45686  -0.45281  -0.43985  -0.36181
 Alpha  occ. eigenvalues --   -0.35060
 Alpha virt. eigenvalues --    0.07486   0.11003   0.17168   0.17937   0.22571
 Alpha virt. eigenvalues --    0.23539   0.24542   0.28031   0.30893   0.32222
 Alpha virt. eigenvalues --    0.34697   0.37142   0.39271   0.41784   0.44908

 Mulliken atomic charges:
              1
     1  C   -0.203556
     2  C   -0.181342
     3  C   -0.184557
     4  C   -0.151756
     5  C   -0.000371
     6  C   -0.182132
     7  C    0.643479
     8  N   -0.642468
     9  N   -0.011386
    10  N   -0.065210
    11  N   -0.439530
    12  Cl   0.008443
    13  H    0.444504
    14  H    0.274522
    15  H    0.239441
    16  H    0.225793
    17  H    0.226127
 Sum of Mulliken atomic charges =   0.00000

 Dipole moment (field-independent basis, Debye):
    X=             -5.7355    Y=              1.4221    Z=              0.9734  Tot=              5.9888
 Quadrupole moment (field-independent basis, Debye-Ang):
   XX=            -82.3953   YY=            -72.2837   ZZ=            -77.6956
   XY=              9.9791   XZ=              1.5303   YZ=             -0.3491

 Normal termination of Gaussian 09 at Thu Jun 16 11:23:25 2016.
