 Gaussian 09, Revision C.01,
 Gaussian 09:  EM64L-G09RevC.01 23-Sep-2011

 ------------------------------------------------------------
 #HF/6-31G* SCF=tight Test Pop=MK iop(6/33=2) iop(6/42=6) opt
 ------------------------------------------------------------

 99/9=1/99;
 ---------------------
 remark line goes here
 ---------------------
 Charge = -1 Multiplicity = 1

 SCF Done:  E(RHF) =  -1875.19688705     A.U. after   16 cycles
 SCF Done:  E(RHF) =  -1875.22267357     A.U. after   16 cycles
 SCF Done:  E(RHF) =  -1875.23339714     A.U. after   16 cycles
 SCF Done:  E(RHF) =  -1875.23798734     A.U. after   17 cycles
 SCF Done:  E(RHF) =  -1875.23808162     A.U. after   15 cycles
 SCF Done:  E(RHF) =  -1875.23830144     A.U. after   13 cycles
 SCF Done:  E(RHF) =  -1875.24020833     A.U. after   14 cycles
 SCF Done:  E(RHF) =  -1875.24168011     A.U. after   14 cycles
 SCF Done:  E(RHF) =  -1875.24251833     A.U. after   16 cycles
 SCF Done:  E(RHF) =  -1875.24316908     A.U. after   15 cycles
 SCF Done:  E(RHF) =  -1875.24571440     A.U. after   11 cycles
 SCF Done:  E(RHF) =  -1875.24571636     A.U. after   11 cycles
 SCF Done:  E(RHF) =  -1875.24571703     A.U. after   10 cycles
 SCF Done:  E(RHF) =  -1875.24571729     A.U. after    9 cycles
 SCF Done:  E(RHF) =  -1875.24571746     A.U. after    8 cycles
 SCF Done:  E(RHF) =  -1875.24571757     A.U. after    9 cycles
 SCF Done:  E(RHF) =  -1875.24571762     A.U. after    8 cycles
 SCF Done:  E(RHF) =  -1875.24571767     A.U. after    8 cycles
 SCF Done:  E(RHF) =  -1875.24571770     A.U. after    8 cycles
 SCF Done:  E(RHF) =  -1875.24571771     A.U. after    8 cycles
 Optimization completed.
    -- Stationary point found.

                         Standard orientation:
 ---------------------------------------------------------------------
 Center     Atomic      Atomic             Coordinates (Angstroms)
 Number     Number       Type             X           Y           Z
 ---------------------------------------------------------------------
      1          6           0       -5.742319    0.530994   -0.176719
      2          6           0       -6.009016   -0.957492    1.676454
      3          6           0       -7.127499    0.579816   -0.309510
      4          6           0       -7.378559   -0.893967    1.526187
      5          6           0        7.740754    0.185315    1.927403
      6          6           0        6.627783    0.967642    1.738757
      7          6           0        6.269717    0.057947   -0.471367
      8          6           0       -7.978016   -0.125163    0.525818
      9          6           0        8.139041   -0.679406    0.913339
     10          6           0       -5.179854   -0.243762    0.819738
     11          6           0        5.886061    0.913224    0.546961
     12          6           0        7.397435   -0.725291   -0.260417
     13          6           0        9.354334   -2.198759   -0.103570
     14          6           0        3.854242    1.897361   -0.534230
     15          6           0      -11.567076   -1.212492   -0.719977
     16          6           0        0.035139    1.431356   -0.285321
     17          6           0       10.442097   -3.199637   -0.348048
     18          6           0       -2.936928    0.193861    0.137216
     19          6           0       -9.482150   -0.090461    0.349213
     20          6           0        2.799173    2.956319   -0.262171
     21          6           0       -1.547970   -0.229758    0.592152
     22          6           0        1.668518    2.933674   -1.288039
     23          6           0      -10.024524   -1.241905   -0.504245
     24          7           0        9.237870   -1.526355    0.963981
     25          7           0        4.768917    1.766041    0.466039
     26          7           0       -0.503791    0.181510   -0.326383
     27          7           0        0.913161    1.701339   -1.300921
     28          8           0        3.875511    1.254353   -1.549120
     29          8           0      -12.007509   -2.178411   -1.346226
     30          8           0       -0.228818    2.237481    0.572089
     31          8           0      -12.161432   -0.237398   -0.252208
     32          8           0       -3.839227   -0.365971    1.040713
     33         16           0        8.129403   -1.891227   -1.335145
     34          1           0        1.367573    0.930740   -1.738419
     35          1           0       -0.435293   -0.317369   -1.184820
     36          1           0        4.619582    2.337761    1.266246
     37          1           0        0.988416    3.744455   -1.074498
     38          1           0        2.069580    3.080835   -2.281128
     39          1           0       -1.516685   -1.308509    0.682081
     40          1           0       -1.337031    0.192745    1.562029
     41          1           0        2.386904    2.825828    0.732307
     42          1           0        3.289920    3.927913   -0.279465
     43          1           0       -9.966326   -0.114806    1.319465
     44          1           0       -9.779637    0.847470   -0.103837
     45          1           0       -3.008592    1.276483    0.126992
     46          1           0       -3.128568   -0.170160   -0.870077
     47          1           0       10.027220   -4.186425   -0.524570
     48          1           0       11.032549   -2.925840   -1.216104
     49          1           0       11.083945   -3.235065    0.521180
     50          1           0        5.712626    0.005809   -1.381309
     51          1           0        6.314472    1.636137    2.521982
     52          1           0        8.301682    0.231876    2.842148
     53          1           0       -8.004065   -1.455925    2.198491
     54          1           0       -7.547722    1.188646   -1.091664
     55          1           0       -5.560838   -1.554414    2.450441
     56          1           0       -5.131215    1.102639   -0.849807
     57          1           0       -9.549347   -1.235378   -1.484224
     58          1           0       -9.763174   -2.200496   -0.059871
 ---------------------------------------------------------------------

 The electronic state is 1-A.
 Alpha  occ. eigenvalues --  -91.94355 -20.51151 -20.50732 -20.46747 -20.27789
 Alpha  occ. eigenvalues --  -20.27167 -15.57998 -15.54078 -15.53339 -15.53234
 Alpha  occ. eigenvalues --  -11.33270 -11.32413 -11.28885 -11.26563 -11.24397
 Alpha  occ. eigenvalues --  -11.23500 -11.22548 -11.21581 -11.21416 -11.21408
 Alpha  occ. eigenvalues --  -11.21262 -11.20838 -11.20640 -11.20455 -11.20121
 Alpha  occ. eigenvalues --  -11.13543 -11.13140 -11.12999 -11.12988 -11.12190
 Alpha  occ. eigenvalues --  -11.11967 -11.07936 -11.04905  -8.95459  -6.63707
 Alpha  occ. eigenvalues --   -6.63620  -6.63436  -1.37838  -1.35349  -1.33554
 Alpha  occ. eigenvalues --   -1.26478  -1.23668  -1.20201  -1.16829  -1.16354
 Alpha  occ. eigenvalues --   -1.12101  -1.05968  -1.05593  -1.04280  -1.02603
 Alpha  occ. eigenvalues --   -1.00428  -0.97704  -0.96628  -0.93378  -0.92607
 Alpha  occ. eigenvalues --   -0.91942  -0.87298  -0.84981  -0.82490  -0.80610
 Alpha  occ. eigenvalues --   -0.79259  -0.75891  -0.74819  -0.73704  -0.73266
 Alpha  occ. eigenvalues --   -0.72919  -0.72018  -0.68728  -0.67975  -0.66384
 Alpha  occ. eigenvalues --   -0.64719  -0.63953  -0.62797  -0.62338  -0.60543
 Alpha  occ. eigenvalues --   -0.59827  -0.58592  -0.58448  -0.58334  -0.57885
 Alpha  occ. eigenvalues --   -0.56761  -0.56180  -0.55577  -0.54591  -0.54280
 Alpha  occ. eigenvalues --   -0.53859  -0.52814  -0.52385  -0.52050  -0.51150
 Alpha  occ. eigenvalues --   -0.50720  -0.50415  -0.49904  -0.49243  -0.48956
 Alpha  occ. eigenvalues --   -0.48790  -0.48429  -0.45983  -0.45464  -0.45004
 Alpha  occ. eigenvalues --   -0.43496  -0.43208  -0.42544  -0.40158  -0.40130
 Alpha  occ. eigenvalues --   -0.39630  -0.39189  -0.38848  -0.38770  -0.38333
 Alpha  occ. eigenvalues --   -0.37448  -0.36688  -0.35730  -0.35252  -0.34015
 Alpha  occ. eigenvalues --   -0.33753  -0.31018  -0.29353  -0.26703  -0.24140
 Alpha  occ. eigenvalues --   -0.20910  -0.19064  -0.17544  -0.17102
 Alpha virt. eigenvalues --    0.14068   0.16228   0.19155   0.21234   0.23827
 Alpha virt. eigenvalues --    0.24246   0.25492   0.26185   0.26396   0.27946
 Alpha virt. eigenvalues --    0.28298   0.28567   0.29840   0.30389   0.31905

 Mulliken atomic charges:
              1
     1  C   -0.279910
     2  C   -0.248918
     3  C   -0.219210
     4  C   -0.207739
     5  C   -0.183008
     6  C   -0.272659
     7  C   -0.238752
     8  C    0.032933
     9  C    0.244802
    10  C    0.414997
    11  C    0.364271
    12  C   -0.221892
    13  C    0.100017
    14  C    0.798258
    15  C    0.753189
    16  C    1.007982
    17  C   -0.529248
    18  C    0.017749
    19  C   -0.318144
    20  C   -0.460857
    21  C   -0.127705
    22  C   -0.106942
    23  C   -0.404667
    24  N   -0.522839
    25  N   -0.918033
    26  N   -0.837413
    27  N   -0.822447
    28  O   -0.622575
    29  O   -0.762387
    30  O   -0.657394
    31  O   -0.754655
    32  O   -0.690106
    33  S    0.270239
    34  H    0.392934
    35  H    0.376165
    36  H    0.399972
    37  H    0.214312
    38  H    0.193928
    39  H    0.185739
    40  H    0.218653
    41  H    0.227151
    42  H    0.193643
    43  H    0.163661
    44  H    0.171295
    45  H    0.175654
    46  H    0.140883
    47  H    0.194027
    48  H    0.191915
    49  H    0.214563
    50  H    0.287431
    51  H    0.202023
    52  H    0.226376
    53  H    0.196464
    54  H    0.194206
    55  H    0.189835
    56  H    0.187540
    57  H    0.132314
    58  H    0.132378
 Sum of Mulliken atomic charges =  -1.00000

 Dipole moment (field-independent basis, Debye):
    X=             55.7518    Y=              5.2485    Z=              2.1687  Tot=             56.0403
 Quadrupole moment (field-independent basis, Debye-Ang):
   XX=           -867.2051   YY=           -206.6928   ZZ=           -205.3026
   XY=            -63.3739   XZ=            -37.6092   YZ=             -6.6068

 Normal termination of Gaussian 09 at Wed Jun 22 16:59:45 2016.
