 Gaussian 09, Revision C.01,
 Gaussian 09:  EM64L-G09RevC.01 23-Sep-2011

 ------------------------------------------------------------
 #HF/6-31G* SCF=tight Test Pop=MK iop(6/33=2) iop(6/42=6) opt
 ------------------------------------------------------------

 99/9=1/99;
 ---------------------
 remark line goes here
 ---------------------
 Charge = -2 Multiplicity = 1

 SCF Done:  E(RHF) =  -910.450174838     A.U. after   16 cycles
 SCF Done:  E(RHF) =  -910.481228788     A.U. after   14 cycles
 SCF Done:  E(RHF) =  -910.473032133     A.U. after   16 cycles
 SCF Done:  E(RHF) =  -910.484007683     A.U. after   14 cycles
 SCF Done:  E(RHF) =  -910.488765871     A.U. after   14 cycles
 SCF Done:  E(RHF) =  -910.476161505     A.U. after   14 cycles
 SCF Done:  E(RHF) =  -910.491388145     A.U. after   15 cycles
 SCF Done:  E(RHF) =  -910.492864241     A.U. after   13 cycles
 SCF Done:  E(RHF) =  -910.493604024     A.U. after   13 cycles
 SCF Done:  E(RHF) =  -910.493084450     A.U. after   13 cycles
 SCF Done:  E(RHF) =  -910.494031602     A.U. after   13 cycles
 SCF Done:  E(RHF) =  -910.494085957     A.U. after   16 cycles
 SCF Done:  E(RHF) =  -910.494634019     A.U. after   12 cycles
 SCF Done:  E(RHF) =  -910.494727199     A.U. after   13 cycles
 SCF Done:  E(RHF) =  -910.494636810     A.U. after   12 cycles
 SCF Done:  E(RHF) =  -910.494759629     A.U. after   12 cycles
 SCF Done:  E(RHF) =  -910.494761067     A.U. after   11 cycles
 SCF Done:  E(RHF) =  -910.494761268     A.U. after    8 cycles
 SCF Done:  E(RHF) =  -910.494761307     A.U. after    8 cycles
 SCF Done:  E(RHF) =  -910.494761321     A.U. after    7 cycles
 Optimization completed.
    -- Stationary point found.

                         Standard orientation:
 ---------------------------------------------------------------------
 Center     Atomic      Atomic             Coordinates (Angstroms)
 Number     Number       Type             X           Y           Z
 ---------------------------------------------------------------------
      1          6           0       -4.871931   -1.095714   -0.482501
      2          8           0       -3.968307   -1.083170    0.579811
      3          6           0       -2.679765   -0.739631    0.231915
      4          6           0       -1.720784   -1.723758    0.068123
      5          6           0       -0.413982   -1.412763   -0.264375
      6          6           0       -0.036035   -0.082883   -0.453757
      7          6           0       -1.009110    0.901032   -0.277702
      8          6           0       -2.316947    0.589055    0.066504
      9          8           0       -3.305115    1.520791    0.239082
     10          6           0       -2.944721    2.861613    0.335205
     11          6           0        1.374244    0.309475   -0.853220
     12          6           0        2.454858    0.132227    0.238501
     13          6           0        2.943476   -1.342914    0.374447
     14          8           0        2.540544   -2.165677   -0.472040
     15          8           0        3.664671   -1.572738    1.348229
     16          6           0        3.601088    1.144157   -0.086076
     17          8           0        4.169763    0.978873   -1.174085
     18          8           0        3.775231    2.059327    0.730167
     19          1           0        2.048593    0.419254    1.203499
     20          1           0        1.346753    1.352206   -1.161692
     21          1           0        1.684226   -0.275662   -1.706796
     22          1           0       -2.193066    3.021440    1.101075
     23          1           0       -2.568623    3.250658   -0.606711
     24          1           0       -3.844897    3.403042    0.600853
     25          1           0       -0.720091    1.926360   -0.411802
     26          1           0        0.342782   -2.168410   -0.365504
     27          1           0       -2.018092   -2.747916    0.220745
     28          1           0       -4.974491   -0.113281   -0.930084
     29          1           0       -4.566876   -1.802071   -1.251421
     30          1           0       -5.832844   -1.404241   -0.083870
 ---------------------------------------------------------------------

 The electronic state is 1-A.
 Alpha  occ. eigenvalues --  -20.41260 -20.39865 -20.16305 -20.15555 -20.15333
 Alpha  occ. eigenvalues --  -20.15199 -11.12042 -11.11525 -11.09842 -11.08118
 Alpha  occ. eigenvalues --  -11.02827 -11.01937 -11.01662 -11.00041 -10.99624
 Alpha  occ. eigenvalues --  -10.99553 -10.95247 -10.90624  -1.24242  -1.21638
 Alpha  occ. eigenvalues --   -1.04680  -1.03595  -0.94445  -0.93746  -0.93196
 Alpha  occ. eigenvalues --   -0.84062  -0.82225  -0.77714  -0.76554  -0.71531
 Alpha  occ. eigenvalues --   -0.63111  -0.61937  -0.57096  -0.52774  -0.50051
 Alpha  occ. eigenvalues --   -0.49335  -0.48525  -0.46654  -0.45197  -0.42237
 Alpha  occ. eigenvalues --   -0.41098  -0.39647  -0.39268  -0.36258  -0.34776
 Alpha  occ. eigenvalues --   -0.34414  -0.32981  -0.31811  -0.30851  -0.29983
 Alpha  occ. eigenvalues --   -0.28551  -0.26614  -0.26033  -0.25665  -0.25351
 Alpha  occ. eigenvalues --   -0.24185  -0.22042  -0.20613  -0.18839  -0.12678
 Alpha  occ. eigenvalues --   -0.10021  -0.08118  -0.06790  -0.06236  -0.05595
 Alpha  occ. eigenvalues --   -0.05382  -0.03997
 Alpha virt. eigenvalues --    0.35369   0.36441   0.40685   0.41446   0.44620
 Alpha virt. eigenvalues --    0.45857   0.46720   0.48257   0.48684   0.48895
 Alpha virt. eigenvalues --    0.50690   0.51507   0.55295   0.56919   0.57847

 Mulliken atomic charges:
              1
     1  C   -0.137749
     2  O   -0.671324
     3  C    0.304343
     4  C   -0.230156
     5  C   -0.249544
     6  C    0.036527
     7  C   -0.329051
     8  C    0.385196
     9  O   -0.674350
    10  C   -0.166222
    11  C   -0.319842
    12  C   -0.318540
    13  C    0.766494
    14  O   -0.793758
    15  O   -0.769300
    16  C    0.746368
    17  O   -0.777703
    18  O   -0.786000
    19  H    0.125562
    20  H    0.129838
    21  H    0.197954
    22  H    0.169708
    23  H    0.146339
    24  H    0.144275
    25  H    0.194218
    26  H    0.294113
    27  H    0.169493
    28  H    0.153414
    29  H    0.131369
    30  H    0.128326
 Sum of Mulliken atomic charges =  -2.00000

 Dipole moment (field-independent basis, Debye):
    X=            -27.5467    Y=              2.5389    Z=             -2.3536  Tot=             27.7634
 Quadrupole moment (field-independent basis, Debye-Ang):
   XX=           -243.2225   YY=           -136.3351   ZZ=           -123.5204
   XY=             -6.4090   XZ=              1.3336   YZ=              2.6951

 Normal termination of Gaussian 09 at Wed Jun 22 12:16:49 2016.
