 Gaussian 09, Revision C.01,
 Gaussian 09:  EM64L-G09RevC.01 23-Sep-2011

 ------------------------------------------------------------
 #HF/6-31G* SCF=tight Test Pop=MK iop(6/33=2) iop(6/42=6) opt
 ------------------------------------------------------------

 99/9=1/99;
 ---------------------
 remark line goes here
 ---------------------
 Charge =  0 Multiplicity = 1

 SCF Done:  E(RHF) =  -1020.81854092     A.U. after   17 cycles
 SCF Done:  E(RHF) =  -1020.83131759     A.U. after   15 cycles
 SCF Done:  E(RHF) =  -1020.83339184     A.U. after   14 cycles
 SCF Done:  E(RHF) =  -1020.83372750     A.U. after   14 cycles
 SCF Done:  E(RHF) =  -1020.83380585     A.U. after   14 cycles
 SCF Done:  E(RHF) =  -1020.83425753     A.U. after   13 cycles
 SCF Done:  E(RHF) =  -1020.83469854     A.U. after   14 cycles
 SCF Done:  E(RHF) =  -1020.83486100     A.U. after   14 cycles
 SCF Done:  E(RHF) =  -1020.83496009     A.U. after   13 cycles
 SCF Done:  E(RHF) =  -1020.83503048     A.U. after   14 cycles
 SCF Done:  E(RHF) =  -1020.83544346     A.U. after    9 cycles
 SCF Done:  E(RHF) =  -1020.83544363     A.U. after    8 cycles
 SCF Done:  E(RHF) =  -1020.83544398     A.U. after    9 cycles
 SCF Done:  E(RHF) =  -1020.83544453     A.U. after    9 cycles
 SCF Done:  E(RHF) =  -1020.83544567     A.U. after   10 cycles
 SCF Done:  E(RHF) =  -1020.83544784     A.U. after   10 cycles
 SCF Done:  E(RHF) =  -1020.83545118     A.U. after   12 cycles
 SCF Done:  E(RHF) =  -1020.83545137     A.U. after    9 cycles
 SCF Done:  E(RHF) =  -1020.83545140     A.U. after    9 cycles
 SCF Done:  E(RHF) =  -1020.83545141     A.U. after    8 cycles
 Optimization completed.
    -- Stationary point found.

                         Standard orientation:
 ---------------------------------------------------------------------
 Center     Atomic      Atomic             Coordinates (Angstroms)
 Number     Number       Type             X           Y           Z
 ---------------------------------------------------------------------
      1          6           0        5.382751   -0.509760   -0.072191
      2          6           0        3.882273   -0.712074   -0.006089
      3          8           0        3.395429   -1.806871    0.009981
      4          7           0        3.166260    0.445830    0.002864
      5          6           0        1.766166    0.625725    0.005643
      6          6           0        1.301586    1.946023   -0.032191
      7          6           0       -0.043553    2.239668   -0.030268
      8          6           0       -0.965800    1.201134    0.010666
      9          6           0       -0.487662   -0.103895    0.049191
     10          6           0        0.860794   -0.422754    0.046974
     11         16           0       -1.854845   -1.202294    0.094870
     12          6           0       -2.918223    0.210517    0.059162
     13          7           0       -2.342869    1.346339    0.010418
     14          7           0       -4.265506    0.058479    0.122092
     15          6           0       -4.945885   -1.168199   -0.230784
     16          1           0       -4.798784   -1.453079   -1.269470
     17          1           0       -4.611616   -1.980319    0.403031
     18          1           0       -6.003591   -1.029863   -0.054987
     19          1           0       -4.749262    0.911347   -0.056708
     20          1           0        1.198926   -1.435986    0.075972
     21          1           0       -0.386052    3.257208   -0.059766
     22          1           0        2.013368    2.753451   -0.063904
     23          1           0        3.693772    1.288123   -0.015835
     24          1           0        5.676887   -0.345765   -1.104443
     25          1           0        5.713083    0.339994    0.514946
     26          1           0        5.867465   -1.406293    0.285105
 ---------------------------------------------------------------------

 The electronic state is 1-A.
 Alpha  occ. eigenvalues --  -91.97004 -20.53108 -15.60349 -15.58924 -15.54282
 Alpha  occ. eigenvalues --  -11.35769 -11.34436 -11.28287 -11.27073 -11.26258
 Alpha  occ. eigenvalues --  -11.25906 -11.23794 -11.23492 -11.23205 -11.23123
 Alpha  occ. eigenvalues --   -8.98093  -6.66347  -6.66259  -6.66061  -1.39955
 Alpha  occ. eigenvalues --   -1.30996  -1.25915  -1.22619  -1.13622  -1.06304
 Alpha  occ. eigenvalues --   -1.03102  -0.98964  -0.98460  -0.94531  -0.85596
 Alpha  occ. eigenvalues --   -0.82440  -0.78330  -0.78325  -0.72133  -0.70173
 Alpha  occ. eigenvalues --   -0.68362  -0.65865  -0.63665  -0.62939  -0.62660
 Alpha  occ. eigenvalues --   -0.60765  -0.59450  -0.58904  -0.57429  -0.57241
 Alpha  occ. eigenvalues --   -0.56011  -0.55107  -0.54810  -0.53932  -0.49648
 Alpha  occ. eigenvalues --   -0.47136  -0.44895  -0.42428  -0.41461  -0.40899
 Alpha  occ. eigenvalues --   -0.38270  -0.31682  -0.27340
 Alpha virt. eigenvalues --    0.13381   0.14066   0.16731   0.19761   0.21079
 Alpha virt. eigenvalues --    0.22231   0.23461   0.25799   0.26556   0.27751
 Alpha virt. eigenvalues --    0.29311   0.30078   0.31004   0.32304   0.33054

 Mulliken atomic charges:
              1
     1  C   -0.589971
     2  C    0.759430
     3  O   -0.595556
     4  N   -0.900923
     5  C    0.347151
     6  C   -0.265135
     7  C   -0.199822
     8  C    0.277222
     9  C   -0.241935
    10  C   -0.234406
    11  S    0.270588
    12  C    0.408833
    13  N   -0.613623
    14  N   -0.768200
    15  C   -0.305392
    16  H    0.178200
    17  H    0.194545
    18  H    0.189775
    19  H    0.395123
    20  H    0.288326
    21  H    0.221474
    22  H    0.194911
    23  H    0.392789
    24  H    0.202003
    25  H    0.175580
    26  H    0.219014
 Sum of Mulliken atomic charges =   0.00000

 Dipole moment (field-independent basis, Debye):
    X=              0.1615    Y=              2.0048    Z=             -0.7787  Tot=              2.1567
 Quadrupole moment (field-independent basis, Debye-Ang):
   XX=            -59.5787   YY=            -97.0451   ZZ=            -98.7692
   XY=             16.2938   XZ=              2.4265   YZ=             -0.2787

 Normal termination of Gaussian 09 at Thu Jun 16 12:19:09 2016.
