 Gaussian 09, Revision C.01,
 Gaussian 09:  EM64L-G09RevC.01 23-Sep-2011

 ------------------------------------------------------------
 #HF/6-31G* SCF=tight Test Pop=MK iop(6/33=2) iop(6/42=6) opt
 ------------------------------------------------------------

 99/9=1/99;
 ---------------------
 remark line goes here
 ---------------------
 Charge =  0 Multiplicity = 1

 SCF Done:  E(RHF) =  -1227.65604248     A.U. after   16 cycles
 SCF Done:  E(RHF) =  -1227.67043228     A.U. after   14 cycles
 SCF Done:  E(RHF) =  -1227.67250782     A.U. after   14 cycles
 SCF Done:  E(RHF) =  -1227.67308782     A.U. after   14 cycles
 SCF Done:  E(RHF) =  -1227.67338891     A.U. after   14 cycles
 SCF Done:  E(RHF) =  -1227.67405433     A.U. after   13 cycles
 SCF Done:  E(RHF) =  -1227.67441142     A.U. after   14 cycles
 SCF Done:  E(RHF) =  -1227.67476480     A.U. after   14 cycles
 SCF Done:  E(RHF) =  -1227.67530441     A.U. after   14 cycles
 SCF Done:  E(RHF) =  -1227.67562216     A.U. after   13 cycles
 SCF Done:  E(RHF) =  -1227.67590639     A.U. after   13 cycles
 SCF Done:  E(RHF) =  -1227.67588470     A.U. after   13 cycles
 SCF Done:  E(RHF) =  -1227.67613115     A.U. after   13 cycles
 SCF Done:  E(RHF) =  -1227.67613906     A.U. after   11 cycles
 SCF Done:  E(RHF) =  -1227.67614624     A.U. after   11 cycles
 SCF Done:  E(RHF) =  -1227.67614744     A.U. after   10 cycles
 SCF Done:  E(RHF) =  -1227.67614773     A.U. after    9 cycles
 SCF Done:  E(RHF) =  -1227.67614787     A.U. after    8 cycles
 SCF Done:  E(RHF) =  -1227.67614795     A.U. after    8 cycles
 SCF Done:  E(RHF) =  -1227.67614799     A.U. after    8 cycles
 Optimization completed.
    -- Stationary point found.

                         Standard orientation:
 ---------------------------------------------------------------------
 Center     Atomic      Atomic             Coordinates (Angstroms)
 Number     Number       Type             X           Y           Z
 ---------------------------------------------------------------------
      1          6           0        2.623634    2.012206    0.794744
      2          6           0        1.278140    2.145036    0.552600
      3          6           0        1.154575   -0.071188   -0.403531
      4          6           0        3.260317    0.827441    0.440319
      5          6           0        0.535764    1.113099   -0.044228
      6          6           0        2.515447   -0.186416   -0.148972
      7          6           0        4.907962   -0.604375    0.206899
      8          6           0       -1.799462    0.546457   -0.744260
      9          6           0       -5.153953   -0.748097    0.743821
     10          6           0        6.286892   -1.186726    0.268973
     11          6           0       -3.174831    1.190627   -0.817018
     12          6           0       -4.249426    0.218909   -1.298336
     13          7           0        4.608319    0.553641    0.624801
     14          7           0       -5.122599   -1.838185    1.578044
     15          7           0       -0.835538    1.367169   -0.248683
     16          7           0       -4.453975   -0.907903   -0.414856
     17          8           0       -1.600561   -0.583185   -1.104191
     18          8           0       -5.740908    0.262937    1.029029
     19         16           0        3.574528   -1.535144   -0.478048
     20          1           0       -3.727457   -1.589411   -0.425799
     21          1           0       -1.138652    2.272673    0.030394
     22          1           0       -5.013663   -2.739773    1.169196
     23          1           0       -5.790040   -1.793884    2.316037
     24          1           0       -5.185831    0.747904   -1.390232
     25          1           0       -3.984011   -0.171462   -2.270956
     26          1           0       -3.448684    1.582094    0.157376
     27          1           0       -3.118444    2.039292   -1.495766
     28          1           0        6.296865   -2.095226    0.861812
     29          1           0        6.648320   -1.432149   -0.724041
     30          1           0        6.950621   -0.461884    0.719172
     31          1           0        0.600331   -0.863544   -0.857449
     32          1           0        0.780970    3.059328    0.827343
     33          1           0        3.185181    2.805443    1.251766
 ---------------------------------------------------------------------

 The electronic state is 1-A.
 Alpha  occ. eigenvalues --  -91.97169 -20.54596 -20.51171 -15.61320 -15.57485
 Alpha  occ. eigenvalues --  -15.57396 -15.56826 -11.36865 -11.36747 -11.31671
 Alpha  occ. eigenvalues --  -11.29585 -11.27289 -11.26444 -11.26403 -11.24485
 Alpha  occ. eigenvalues --  -11.24414 -11.24240 -11.24001 -11.23868  -8.98273
 Alpha  occ. eigenvalues --   -6.66520  -6.66434  -6.66249  -1.41281  -1.39659
 Alpha  occ. eigenvalues --   -1.29292  -1.26952  -1.24080  -1.19307  -1.15093
 Alpha  occ. eigenvalues --   -1.07150  -1.05850  -1.03340  -1.00392  -0.96197
 Alpha  occ. eigenvalues --   -0.91009  -0.85650  -0.82798  -0.79852  -0.78816
 Alpha  occ. eigenvalues --   -0.76127  -0.74851  -0.71986  -0.70519  -0.69682
 Alpha  occ. eigenvalues --   -0.66961  -0.65480  -0.65203  -0.62237  -0.61458
 Alpha  occ. eigenvalues --   -0.61120  -0.60903  -0.60114  -0.59738  -0.58596
 Alpha  occ. eigenvalues --   -0.57305  -0.56038  -0.55246  -0.54800  -0.54127
 Alpha  occ. eigenvalues --   -0.53314  -0.52405  -0.49183  -0.47911  -0.43856
 Alpha  occ. eigenvalues --   -0.43273  -0.42654  -0.41939  -0.41541  -0.41183
 Alpha  occ. eigenvalues --   -0.39066  -0.32246  -0.29718
 Alpha virt. eigenvalues --    0.11145   0.13286   0.16342   0.18118   0.20893
 Alpha virt. eigenvalues --    0.22012   0.22353   0.24412   0.25232   0.25900
 Alpha virt. eigenvalues --    0.26012   0.27032   0.28226   0.29918   0.31314

 Mulliken atomic charges:
              1
     1  C   -0.182408
     2  C   -0.272993
     3  C   -0.237871
     4  C    0.245939
     5  C    0.362078
     6  C   -0.222372
     7  C    0.100971
     8  C    0.799154
     9  C    0.936716
    10  C   -0.530020
    11  C   -0.458404
    12  C   -0.112644
    13  N   -0.521517
    14  N   -0.914766
    15  N   -0.916781
    16  N   -0.802181
    17  O   -0.624534
    18  O   -0.640491
    19  S    0.271291
    20  H    0.401642
    21  H    0.399882
    22  H    0.374955
    23  H    0.388840
    24  H    0.215577
    25  H    0.196459
    26  H    0.225797
    27  H    0.195196
    28  H    0.194436
    29  H    0.194372
    30  H    0.216950
    31  H    0.285692
    32  H    0.201821
    33  H    0.229213
 Sum of Mulliken atomic charges =   0.00000

 Dipole moment (field-independent basis, Debye):
    X=              0.7995    Y=             -0.4928    Z=             -0.4594  Tot=              1.0456
 Quadrupole moment (field-independent basis, Debye-Ang):
   XX=           -122.5470   YY=           -102.6074   ZZ=           -120.1624
   XY=              4.2272   XZ=              2.7539   YZ=             -4.6502

 Normal termination of Gaussian 09 at Thu Jun 16 12:20:26 2016.
