 Gaussian 03, Revision D.02,
 Gaussian 03:  AM64L-G03RevD.02  1-Mar-2006

 ------------------------------------------------------------
 #HF/6-31G* SCF=tight Test Pop=MK iop(6/33=2) iop(6/42=6) opt
 ------------------------------------------------------------

 ---------------------
 remark line goes here
 ---------------------
 Symbolic Z-matrix:
 Charge = -1 Multiplicity = 1

 SCF Done:  E(RHF) =  -1667.41477697     A.U. after   16 cycles
 SCF Done:  E(RHF) =  -1667.44126333     A.U. after   14 cycles
 SCF Done:  E(RHF) =  -1667.45280012     A.U. after   16 cycles
 SCF Done:  E(RHF) =  -1667.45604180     A.U. after   15 cycles
 SCF Done:  E(RHF) =  -1667.45840778     A.U. after   17 cycles
 SCF Done:  E(RHF) =  -1667.46150551     A.U. after   13 cycles
 SCF Done:  E(RHF) =  -1667.46332059     A.U. after   14 cycles
 SCF Done:  E(RHF) =  -1667.46462618     A.U. after   13 cycles
 SCF Done:  E(RHF) =  -1667.46517847     A.U. after   13 cycles
 SCF Done:  E(RHF) =  -1667.46529998     A.U. after   13 cycles
 SCF Done:  E(RHF) =  -1667.49079354     A.U. after   17 cycles
 SCF Done:  E(RHF) =  -1667.49316540     A.U. after   17 cycles
 SCF Done:  E(RHF) =  -1667.49358694     A.U. after   15 cycles
 SCF Done:  E(RHF) =  -1667.49255005     A.U. after   15 cycles
 SCF Done:  E(RHF) =  -1667.49423063     A.U. after   13 cycles
 SCF Done:  E(RHF) =  -1667.49430026     A.U. after   12 cycles
 SCF Done:  E(RHF) =  -1667.49430807     A.U. after   11 cycles
 SCF Done:  E(RHF) =  -1667.49430973     A.U. after    9 cycles
 SCF Done:  E(RHF) =  -1667.49431021     A.U. after    9 cycles
 SCF Done:  E(RHF) =  -1667.49431028     A.U. after    8 cycles
 Optimization completed.
    -- Stationary point found.

                         Standard orientation:
 ---------------------------------------------------------------------
 Center     Atomic     Atomic              Coordinates (Angstroms)
 Number     Number      Type              X           Y           Z
 ---------------------------------------------------------------------
    1          6             0        0.336540    1.315198   -0.694207
    2          6             0       -1.015584    1.089055   -0.648494
    3          6             0       -0.679577   -1.228053   -0.035976
    4          6             0        1.211448    0.269008   -0.410320
    5          6             0       -1.542772   -0.178520   -0.322514
    6          6             0        0.684043   -0.972608   -0.087586
    7          6             0        3.123843   -0.762966   -0.118246
    8          6             0        6.095947    2.878751    0.530446
    9          6             0        5.506843    1.507611    0.864259
   10          6             0       -3.703655   -1.330364    0.037006
   11          6             0       -5.564120    1.560928    0.158189
   12          6             0        5.537389    0.576907   -0.345758
   13          6             0       -5.194322   -1.046216   -0.059450
   14          6             0       -5.709073    0.142316    0.775578
   15          7             0        2.602202    0.348814   -0.418211
   16          7             0       -2.927513   -0.278176   -0.320949
   17          8             0       -3.280849   -2.405975    0.388733
   18          8             0       -4.729013    1.688893   -0.763951
   19          8             0       -6.280520    2.415568    0.654832
   20         16             0        2.007610   -2.081449    0.223997
   21         16             0        4.858126   -1.082519   -0.037366
   22          1             0        4.483508    1.620984    1.198939
   23          1             0        6.063360    1.054786    1.679568
   24          1             0       -3.458768    0.556346   -0.572715
   25          1             0       -6.764589   -0.005152    0.976176
   26          1             0       -5.223753    0.154086    1.750110
   27          1             0       -5.435562   -0.874598   -1.104256
   28          1             0       -5.681190   -1.962881    0.250677
   29          1             0        6.558504    0.394791   -0.663481
   30          1             0        4.997263    1.003624   -1.178620
   31          1             0        7.128776    2.798125    0.200678
   32          1             0        5.531168    3.364902   -0.259281
   33          1             0        6.076401    3.529542    1.399132
   34          1             0       -1.067524   -2.191080    0.217212
   35          1             0       -1.706604    1.885773   -0.857536
   36          1             0        0.725744    2.285605   -0.943063
 ---------------------------------------------------------------------

 The electronic state is 1-A.
 Alpha  occ. eigenvalues --  -91.89673 -91.89078 -20.41224 -20.33033 -20.31913
 Alpha  occ. eigenvalues --  -15.49531 -15.46254 -11.26023 -11.23055 -11.19951
 Alpha  occ. eigenvalues --  -11.18772 -11.18437 -11.17512 -11.16623 -11.16608
 Alpha  occ. eigenvalues --  -11.16212 -11.14943 -11.13638 -11.13543 -11.10702
 Alpha  occ. eigenvalues --  -11.08627  -8.90733  -8.90123  -6.58990  -6.58893
 Alpha  occ. eigenvalues --   -6.58701  -6.58433  -6.58260  -6.58082  -1.27510
 Alpha  occ. eigenvalues --   -1.21711  -1.21341  -1.13889  -1.10782  -1.05378
 Alpha  occ. eigenvalues --   -1.02847  -0.98555  -0.95852  -0.93301  -0.90206
 Alpha  occ. eigenvalues --   -0.89415  -0.83250  -0.78343  -0.75968  -0.74288
 Alpha  occ. eigenvalues --   -0.72536  -0.67161  -0.65700  -0.61191  -0.59712
 Alpha  occ. eigenvalues --   -0.58123  -0.55994  -0.55330  -0.54723  -0.52802
 Alpha  occ. eigenvalues --   -0.51527  -0.50956  -0.50585  -0.50124  -0.48834
 Alpha  occ. eigenvalues --   -0.48261  -0.47097  -0.46564  -0.45628  -0.44652
 Alpha  occ. eigenvalues --   -0.43941  -0.43652  -0.42798  -0.42510  -0.41213
 Alpha  occ. eigenvalues --   -0.40476  -0.39041  -0.38196  -0.37343  -0.35303
 Alpha  occ. eigenvalues --   -0.34536  -0.33397  -0.32897  -0.29649  -0.28408
 Alpha  occ. eigenvalues --   -0.24043  -0.23154  -0.22529  -0.22190  -0.18547
 Alpha virt. eigenvalues --    0.20023   0.22431   0.23023   0.26470   0.27675
 Alpha virt. eigenvalues --    0.29063   0.30733   0.33427   0.33933   0.34892
 Alpha virt. eigenvalues --    0.35988   0.36400   0.37008   0.38500   0.38716

 Mulliken atomic charges:
              1
     1  C   -0.189609
     2  C   -0.283278
     3  C   -0.252029
     4  C    0.249587
     5  C    0.375637
     6  C   -0.229816
     7  C   -0.085822
     8  C   -0.485694
     9  C   -0.301373
    10  C    0.740484
    11  C    0.773345
    12  C   -0.482995
    13  C   -0.406533
    14  C   -0.438074
    15  N   -0.539993
    16  N   -0.963396
    17  O   -0.648086
    18  O   -0.784277
    19  O   -0.714466
    20  S    0.276234
    21  S    0.184247
    22  H    0.202776
    23  H    0.160313
    24  H    0.527731
    25  H    0.164286
    26  H    0.160263
    27  H    0.191510
    28  H    0.170503
    29  H    0.185878
    30  H    0.228773
    31  H    0.146705
    32  H    0.167337
    33  H    0.163814
    34  H    0.278009
    35  H    0.251544
    36  H    0.206465
 Sum of Mulliken charges=  -1.00000

 Dipole moment (field-independent basis, Debye):
    X=    18.9213    Y=    -3.3511    Z=    -0.4980  Tot=    19.2222
 Quadrupole moment (field-independent basis, Debye-Ang):
   XX=  -254.8159   YY=  -171.7707   ZZ=  -145.3741
   XY=    46.0002   XZ=     4.5351   YZ=     0.3620

 Normal termination of Gaussian 03 at Wed Jun 22 17:46:35 2016.
